 Gaussian 16, Revision B.01,
 Gaussian 16:  ES64L-G16RevB.01 20-Dec-2017

 -----------------------------------
 #P wb97xd/6-311g(d,p) nosymm pop=MK
 -----------------------------------

 -------------------
 Title Card Required
 -------------------
 Symbolic Z-matrix:
 Charge =  0 Multiplicity = 1

                          Input orientation:
 ---------------------------------------------------------------------
 Center     Atomic      Atomic             Coordinates (Angstroms)
 Number     Number       Type             X           Y           Z
 ---------------------------------------------------------------------
      1          6           0       -0.066620    0.366600    0.139560
      2          6           0        1.326890    0.337430    0.139170
      3          6           0        2.025810    1.543400    0.138650
      4          6           0        1.354340    2.764810    0.138070
      5          6           0       -0.039490    2.767110    0.137930
      6          6           0       -0.761450    1.574890    0.138590
      7          1           0       -0.620010   -0.566340    0.140050
      8          1           0        3.110460    1.530730    0.138250
      9          1           0       -0.570910    3.712740    0.136900
     10          6           0        1.717510    5.103650    0.956430
     11          6           0        2.109520    4.043190    0.137780
     12          6           0        3.230650    4.203220   -0.676030
     13          6           0        3.957830    5.393180   -0.686410
     14          6           0        3.546120    6.440330    0.139930
     15          6           0        2.433270    6.292440    0.955080
     16          1           0        0.861230    4.987610    1.611460
     17          1           0        3.543010    3.384240   -1.315430
     18          1           0        4.086740    7.380370    0.126160
     19          1           0        2.120470    7.110450    1.593940
     20          6           0        6.314710    6.149070   -1.119700
     21          6           0        5.141030    5.543740   -1.565540
     22          6           0        5.124360    5.085420   -2.885800
     23          7           0        6.149900    5.182240   -3.726000
     24          6           0        7.261430    5.760230   -3.274600
     25          6           0        7.390830    6.261700   -1.985790
     26          1           0        6.386860    6.509620   -0.099030
     27          1           0        4.222060    4.629600   -3.285780
     28          1           0        8.086660    5.824880   -3.977950
     29          1           0        8.319140    6.720590   -1.667650
     30          6           0        3.170730   -1.147200    0.957250
     31          6           0        2.056010   -0.956000    0.139170
     32          6           0        1.632670   -2.007010   -0.673900
     33          6           0        2.298340   -3.232420   -0.683710
     34          6           0        3.411440   -3.399920    0.142030
     35          6           0        3.841350   -2.362080    0.956170
     36          1           0        3.499430   -0.347490    1.611600
     37          1           0        0.767090   -1.867690   -1.313040
     38          1           0        3.954320   -4.338660    0.128620
     39          1           0        4.706410   -2.500560    1.594620
     40          6           0        1.771480   -5.651330   -1.113120
     41          6           0        1.835140   -4.332980   -1.561030
     42          6           0        1.445460   -4.090980   -2.881250
     43          7           0        1.014740   -5.028400   -3.719570
     44          6           0        0.958680   -6.279270   -3.266270
     45          6           0        1.329070   -6.640460   -1.977240
     46          1           0        2.048300   -5.892820   -0.092340
     47          1           0        1.502430   -3.082320   -3.282820
     48          1           0        0.600540   -7.026910   -3.968150
     49          1           0        1.261500   -7.673270   -1.657420
     50          6           0       -2.969180    0.723790    0.959790
     51          6           0       -2.246140    1.590190    0.138220
     52          6           0       -2.944540    2.478910   -0.678620
     53          6           0       -4.338620    2.514900   -0.688920
     54          6           0       -5.040380    1.638260    0.140500
     55          6           0       -4.356600    0.750530    0.958540
     56          1           0       -2.440980    0.041980    1.616980
     57          1           0       -2.390850    3.156280   -1.320310
     58          1           0       -6.124790    1.637460    0.126880
     59          1           0       -4.909140    0.073330    1.599800
     60          6           0       -6.170040    4.178530   -1.127150
     61          6           0       -5.059760    3.462250   -1.570950
     62          6           0       -4.654280    3.672660   -2.891850
     63          7           0       -5.249970    4.510670   -3.734420
     64          6           0       -6.305490    5.186810   -3.284900
     65          6           0       -6.804620    5.052390   -1.995730
     66          1           0       -6.518440    4.064060   -0.106130
     67          1           0       -3.808960    3.117080   -3.290180
     68          1           0       -6.773210    5.867760   -3.990170
     69          1           0       -7.665520    5.628810   -1.679270
 ---------------------------------------------------------------------

 SCF Done:  E(RwB97XD) =  -1666.49061134     A.U. after   14 cycles

 Alpha  occ. eigenvalues --  -14.42831 -14.42831 -14.42830 -10.32192 -10.32192
 Alpha  occ. eigenvalues --  -10.32191 -10.32134 -10.32133 -10.32133 -10.31014
 Alpha  occ. eigenvalues --  -10.31013 -10.31013 -10.30985 -10.30984 -10.30984
 Alpha  occ. eigenvalues --  -10.30923 -10.30922 -10.30921 -10.30904 -10.30903
 Alpha  occ. eigenvalues --  -10.30902 -10.30872 -10.30872 -10.30871 -10.29920
 Alpha  occ. eigenvalues --  -10.29919 -10.29919 -10.29761 -10.29761 -10.29761
 Alpha  occ. eigenvalues --  -10.29684 -10.29684 -10.29683 -10.29670 -10.29670
 Alpha  occ. eigenvalues --  -10.29670 -10.29594 -10.29594 -10.29593 -10.29562
 Alpha  occ. eigenvalues --  -10.29560 -10.29558  -1.05243  -1.05242  -1.05242
 Alpha  occ. eigenvalues --   -0.99699  -0.98243  -0.98242  -0.96624  -0.92694
 Alpha  occ. eigenvalues --   -0.92694  -0.91996  -0.89786  -0.89786  -0.88533
 Alpha  occ. eigenvalues --   -0.88291  -0.88290  -0.85807  -0.84387  -0.84385
 Alpha  occ. eigenvalues --   -0.83999  -0.82772  -0.82771  -0.75076  -0.75074
 Alpha  occ. eigenvalues --   -0.74447  -0.73995  -0.73979  -0.73979  -0.72580
 Alpha  occ. eigenvalues --   -0.72579  -0.71126  -0.69664  -0.69663  -0.69644
 Alpha  occ. eigenvalues --   -0.66622  -0.66620  -0.64337  -0.62622  -0.62622
 Alpha  occ. eigenvalues --   -0.61352  -0.60259  -0.60258  -0.59154  -0.58918
 Alpha  occ. eigenvalues --   -0.58403  -0.58403  -0.57733  -0.57002  -0.56471
 Alpha  occ. eigenvalues --   -0.56470  -0.54992  -0.54992  -0.54456  -0.54060
 Alpha  occ. eigenvalues --   -0.53283  -0.53283  -0.52132  -0.51975  -0.51974
 Alpha  occ. eigenvalues --   -0.51782  -0.51454  -0.51452  -0.49651  -0.49650
 Alpha  occ. eigenvalues --   -0.49583  -0.49395  -0.49370  -0.49370  -0.47960
 Alpha  occ. eigenvalues --   -0.47443  -0.47441  -0.46689  -0.46687  -0.46633
 Alpha  occ. eigenvalues --   -0.45745  -0.45745  -0.45650  -0.44361  -0.43913
 Alpha  occ. eigenvalues --   -0.43912  -0.43578  -0.42272  -0.42269  -0.38647
 Alpha  occ. eigenvalues --   -0.38644  -0.37973  -0.36926  -0.36924  -0.35990
 Alpha  occ. eigenvalues --   -0.35750  -0.35750  -0.34141  -0.34137  -0.34137
 Alpha  occ. eigenvalues --   -0.33571  -0.32061  -0.32060  -0.31493  -0.30673
 Alpha  occ. eigenvalues --   -0.30670
 Alpha virt. eigenvalues --    0.01463   0.01467   0.02178   0.02738   0.02742
 Alpha virt. eigenvalues --    0.04011   0.04022   0.04022   0.04856   0.07131
 Alpha virt. eigenvalues --    0.07134   0.07813   0.09094   0.09100   0.11861

 Mulliken charges:
               1
     1  C   -0.065613
     2  C   -0.051974
     3  C   -0.065705
     4  C   -0.052014
     5  C   -0.065643
     6  C   -0.052184
     7  H    0.122330
     8  H    0.122319
     9  H    0.122351
    10  C   -0.083977
    11  C   -0.065604
    12  C   -0.067110
    13  C   -0.054316
    14  C   -0.084336
    15  C   -0.104360
    16  H    0.117081
    17  H    0.127049
    18  H    0.113708
    19  H    0.110986
    20  C    0.023467
    21  C   -0.182190
    22  C    0.097524
    23  N   -0.304920
    24  C    0.065300
    25  C   -0.206858
    26  H    0.121331
    27  H    0.131018
    28  H    0.125892
    29  H    0.115708
    30  C   -0.084023
    31  C   -0.065495
    32  C   -0.067177
    33  C   -0.054229
    34  C   -0.084449
    35  C   -0.104340
    36  H    0.117061
    37  H    0.127095
    38  H    0.113731
    39  H    0.110993
    40  C    0.023431
    41  C   -0.182200
    42  C    0.097526
    43  N   -0.304947
    44  C    0.065317
    45  C   -0.206836
    46  H    0.121350
    47  H    0.131007
    48  H    0.125889
    49  H    0.115698
    50  C   -0.083930
    51  C   -0.065766
    52  C   -0.067215
    53  C   -0.054150
    54  C   -0.084426
    55  C   -0.104312
    56  H    0.117043
    57  H    0.127120
    58  H    0.113718
    59  H    0.110996
    60  C    0.023445
    61  C   -0.182083
    62  C    0.097417
    63  N   -0.304887
    64  C    0.065281
    65  C   -0.206852
    66  H    0.121330
    67  H    0.131022
    68  H    0.125889
    69  H    0.115702
 Sum of Mulliken charges =   0.00000

 Dipole moment (field-independent basis, Debye):
    X=              0.0009    Y=              0.0099    Z=              6.3550  Tot=              6.3550
 Quadrupole moment (field-independent basis, Debye-Ang):
   XX=           -209.1016   YY=           -209.0625   ZZ=           -271.2004
   XY=             -0.0307   XZ=              4.0638   YZ=              9.8434

 ESP charges:
               1
     1  C   -0.144738
     2  C    0.026154
     3  C   -0.142257
     4  C    0.027497
     5  C   -0.147850
     6  C    0.017643
     7  H    0.123707
     8  H    0.123551
     9  H    0.124857
    10  C   -0.089619
    11  C   -0.016857
    12  C   -0.034802
    13  C   -0.074908
    14  C   -0.059942
    15  C   -0.213100
    16  H    0.118272
    17  H    0.089830
    18  H    0.111619
    19  H    0.154035
    20  C    0.204865
    21  C   -0.233431
    22  C    0.442616
    23  N   -0.662302
    24  C    0.472678
    25  C   -0.558036
    26  H    0.083584
    27  H    0.029396
    28  H    0.027670
    29  H    0.203215
    30  C   -0.097345
    31  C   -0.009790
    32  C   -0.050840
    33  C   -0.054092
    34  C   -0.082235
    35  C   -0.197168
    36  H    0.117791
    37  H    0.095220
    38  H    0.117243
    39  H    0.150917
    40  C    0.166677
    41  C   -0.207163
    42  C    0.401427
    43  N   -0.633582
    44  C    0.427895
    45  C   -0.513079
    46  H    0.090714
    47  H    0.038268
    48  H    0.037819
    49  H    0.195801
    50  C   -0.108853
    51  C    0.013589
    52  C   -0.073250
    53  C   -0.015073
    54  C   -0.085508
    55  C   -0.200618
    56  H    0.120903
    57  H    0.100913
    58  H    0.117521
    59  H    0.153209
    60  C    0.241415
    61  C   -0.298819
    62  C    0.457138
    63  N   -0.661294
    64  C    0.472189
    65  C   -0.569877
    66  H    0.076056
    67  H    0.028103
    68  H    0.028934
    69  H    0.205501
 Sum of ESP charges =   0.00000

 1\1\GINC-THINC349\SP\RwB97XD\6-311G(d,p)\C39H27N3\LINK\15-Jun-2021\0\\
 #P wb97xd/6-311g(d,p) nosymm pop=MK\\Title Card Required\\0,1\C,0,-0.0
 6662,0.3666,0.13956\C,0,1.32689,0.33743,0.13917\C,0,2.02581,1.5434,0.1
 3865\C,0,1.35434,2.76481,0.13807\C,0,-0.03949,2.76711,0.13793\C,0,-0.7
 6145,1.57489,0.13859\H,0,-0.62001,-0.56634,0.14005\H,0,3.11046,1.53073
 ,0.13825\H,0,-0.57091,3.71274,0.1369\C,0,1.71751,5.10365,0.95643\C,0,2
 .10952,4.04319,0.13778\C,0,3.23065,4.20322,-0.67603\C,0,3.95783,5.3931
 8,-0.68641\C,0,3.54612,6.44033,0.13993\C,0,2.43327,6.29244,0.95508\H,0

 Normal termination of Gaussian 16 at Tue Jun 15 15:22:48 2021.
