 Gaussian 16, Revision B.01,
 Gaussian 16:  ES64L-G16RevB.01 20-Dec-2017

 -----------------------------------
 #P wb97xd/6-311g(d,p) nosymm pop=MK
 -----------------------------------

 -------------------
 Title Card Required
 -------------------
 Symbolic Z-matrix:
 Charge =  0 Multiplicity = 1

                          Input orientation:
 ---------------------------------------------------------------------
 Center     Atomic      Atomic             Coordinates (Angstroms)
 Number     Number       Type             X           Y           Z
 ---------------------------------------------------------------------
      1          6           0       -1.262590   -1.831960    0.194860
      2          6           0       -2.531280   -1.258560    0.062800
      3          1           0       -2.637540   -0.187470   -0.075370
      4          6           0       -3.647440   -2.070700    0.081680
      5          6           0       -3.533470   -3.455140    0.227200
      6          6           0       -2.279120   -4.037100    0.356540
      7          1           0       -2.171620   -5.109460    0.477810
      8          6           0       -1.156010   -3.221180    0.340290
      9          1           0       -0.173700   -3.663470    0.464760
     10          6           0       -5.106480   -1.660970   -0.048660
     11          6           0       -4.880910   -4.039370    0.209100
     12          6           0       -5.809680   -3.006350    0.049470
     13          6           0       -7.166400   -3.270540   -0.001520
     14          1           0       -7.880140   -2.463170   -0.125770
     15          6           0       -7.593230   -4.590870    0.109650
     16          1           0       -8.652380   -4.818770    0.072150
     17          6           0       -6.671220   -5.623490    0.268790
     18          1           0       -7.022100   -6.645800    0.353670
     19          6           0       -5.307450   -5.356930    0.319730
     20          1           0       -4.593460   -6.163890    0.443650
     21          6           0       -5.946160    0.355810   -1.048300
     22          6           0       -5.410640   -0.903550   -1.332310
     23          6           0       -5.215560   -1.316620   -2.637970
     24          1           0       -4.797940   -2.295190   -2.849290
     25          6           0       -5.564770   -0.450570   -3.670060
     26          1           0       -5.419160   -0.755100   -4.700180
     27          6           0       -6.099280    0.805890   -3.391720
     28          1           0       -6.364940    1.467300   -4.208640
     29          6           0       -6.294480    1.219970   -2.078780
     30          1           0       -6.710210    2.199090   -1.867020
     31          6           0       -5.548120   -0.659780    1.007920
     32          6           0       -6.031410    0.508090    0.411190
     33          6           0       -6.484840    1.561770    1.194940
     34          1           0       -6.861190    2.471480    0.739780
     35          6           0       -6.447270    1.429080    2.578620
     36          1           0       -6.797290    2.241230    3.205780
     37          6           0       -5.964520    0.262820    3.169170
     38          1           0       -5.943410    0.177950    4.249700
     39          6           0       -5.509980   -0.793060    2.384310
     40          1           0       -5.132960   -1.702970    2.838960
     41          6           0       -0.047510   -0.982100    0.184350
     42          6           0        1.099280   -1.391510   -0.503730
     43          1           0        1.102160   -2.323750   -1.059210
     44          6           0        2.219960   -0.585780   -0.493120
     45          6           0        2.229570    0.633140    0.189860
     46          6           0        1.096200    1.052140    0.874670
     47          1           0        1.087550    1.991520    1.416570
     48          6           0       -0.030670    0.241240    0.866520
     49          1           0       -0.912440    0.548320    1.418100
     50          6           0        3.559190   -0.834560   -1.169840
     51          6           0        3.548230    1.253850    0.017200
     52          6           0        4.334550    0.412870   -0.774600
     53          6           0        5.633980    0.745570   -1.100420
     54          1           0        6.237990    0.068950   -1.696240
     55          6           0        6.173260    1.947950   -0.631710
     56          6           0        5.378890    2.786200    0.161100
     57          1           0        5.789800    3.728600    0.506160
     58          6           0        4.072730    2.449780    0.490100
     59          1           0        3.474840    3.118530    1.099560
     60          6           0        4.469320   -2.954560   -1.838980
     61          6           0        4.226140   -2.130940   -0.736280
     62          6           0        4.578920   -2.527850    0.541020
     63          1           0        4.387520   -1.881650    1.391020
     64          6           0        5.183920   -3.770010    0.709450
     65          1           0        5.469140   -4.099140    1.702150
     66          6           0        5.428140   -4.594730   -0.386940
     67          1           0        5.900920   -5.558730   -0.236600
     68          6           0        5.073160   -4.194290   -1.670350
     69          1           0        5.265620   -4.839420   -2.520710
     70          6           0        3.455690   -1.032830   -2.674300
     71          6           0        3.989890   -2.269240   -3.047790
     72          6           0        3.999440   -2.656230   -4.382000
     73          1           0        4.411790   -3.614000   -4.680340
     74          6           0        3.468390   -1.790630   -5.331850
     75          1           0        3.466800   -2.076470   -6.377650
     76          6           0        2.936540   -0.559060   -4.954660
     77          1           0        2.525760    0.101570   -5.709620
     78          6           0        2.926830   -0.170810   -3.618050
     79          1           0        2.513080    0.786330   -3.319020
     80          6           0        7.565330    2.330720   -0.969980
     81          6           0        8.395960    2.910250   -0.005620
     82          1           0        8.037550    3.062120    1.007350
     83          6           0        9.686770    3.261980   -0.345880
     84          6           0       10.180310    3.047240   -1.634760
     85          6           0        9.366250    2.470300   -2.600830
     86          1           0        9.729740    2.302600   -3.608780
     87          6           0        8.067050    2.118470   -2.260560
     88          1           0        7.416020    1.689180   -3.014170
     89          6           0       10.749470    3.894670    0.539500
     90          6           0       11.570390    3.518750   -1.687340
     91          6           0       11.917270    4.016600   -0.427610
     92          6           0       13.178810    4.530570   -0.188020
     93          1           0       13.439640    4.914560    0.792420
     94          6           0       14.102460    4.543450   -1.229430
     95          1           0       15.096510    4.942120   -1.061950
     96          6           0       13.761210    4.048160   -2.486420
     97          1           0       14.493610    4.066250   -3.285610
     98          6           0       12.492720    3.531530   -2.726290
     99          1           0       12.231660    3.147010   -3.706260
    100          6           0       10.374500    5.165270    2.543620
    101          6           0       10.316640    5.219760    1.148170
    102          6           0        9.903350    6.367970    0.496680
    103          1           0        9.861370    6.401230   -0.586790
    104          6           0        9.544190    7.475040    1.260190
    105          1           0        9.218080    8.384610    0.768770
    106          6           0        9.600370    7.425340    2.651710
    107          1           0        9.317020    8.297410    3.230200
    108          6           0       10.015790    6.270410    3.305270
    109          1           0       10.057690    6.236400    4.388530
    110          6           0       11.067560    3.077660    1.782510
    111          6           0       10.843190    3.829430    2.939220
    112          6           0       11.067570    3.274130    4.192710
    113          1           0       10.895410    3.850470    5.095250
    114          6           0       11.517860    1.960870    4.269990
    115          1           0       11.697800    1.511000    5.239840
    116          6           0       11.739960    1.215120    3.113950
    117          1           0       12.090160    0.192400    3.194640
    118          6           0       11.515180    1.771000    1.857920
    119          1           0       11.685320    1.194310    0.955060
 ---------------------------------------------------------------------

 SCF Done:  E(RwB97XD) =  -2884.26756181     A.U. after   17 cycles

 Alpha  occ. eigenvalues --  -10.31713 -10.31693 -10.31690 -10.29902 -10.29902
 Alpha  occ. eigenvalues --  -10.29872 -10.29872 -10.29521 -10.29521 -10.29520
 Alpha  occ. eigenvalues --  -10.29509 -10.29505 -10.29504 -10.29502 -10.29502
 Alpha  occ. eigenvalues --  -10.29495 -10.29494 -10.29479 -10.29478 -10.29463
 Alpha  occ. eigenvalues --  -10.29461 -10.29461 -10.29447 -10.29444 -10.29443
 Alpha  occ. eigenvalues --  -10.29431 -10.29418 -10.29418 -10.29402 -10.29392
 Alpha  occ. eigenvalues --  -10.29391 -10.29013 -10.29012 -10.29008 -10.29007
 Alpha  occ. eigenvalues --  -10.29004 -10.29003 -10.28992 -10.28991 -10.28959
 Alpha  occ. eigenvalues --  -10.28958 -10.28954 -10.28954 -10.28866 -10.28865
 Alpha  occ. eigenvalues --  -10.28841 -10.28839 -10.28826 -10.28826 -10.28817
 Alpha  occ. eigenvalues --  -10.28816 -10.28799 -10.28798 -10.28794 -10.28794
 Alpha  occ. eigenvalues --  -10.28780 -10.28779 -10.28762 -10.28762 -10.28754
 Alpha  occ. eigenvalues --  -10.28753 -10.28753 -10.28753 -10.28751 -10.28751
 Alpha  occ. eigenvalues --  -10.28734 -10.28734 -10.28733 -10.28733 -10.28728
 Alpha  occ. eigenvalues --  -10.28727 -10.28711 -10.28711 -10.28687 -10.28687
 Alpha  occ. eigenvalues --   -1.01655  -1.01561  -1.01515  -0.98678  -0.98489
 Alpha  occ. eigenvalues --   -0.98287  -0.96811  -0.95841  -0.95368  -0.95356
 Alpha  occ. eigenvalues --   -0.95356  -0.94814  -0.92698  -0.91793  -0.91472
 Alpha  occ. eigenvalues --   -0.90188  -0.89424  -0.88608  -0.87807  -0.87670
 Alpha  occ. eigenvalues --   -0.86888  -0.85313  -0.85251  -0.85094  -0.85065
 Alpha  occ. eigenvalues --   -0.84833  -0.84798  -0.84787  -0.84773  -0.84773
 Alpha  occ. eigenvalues --   -0.83938  -0.81855  -0.81844  -0.81843  -0.81821
 Alpha  occ. eigenvalues --   -0.79561  -0.78851  -0.78560  -0.78359  -0.74813
 Alpha  occ. eigenvalues --   -0.74154  -0.74085  -0.73583  -0.73050  -0.72681
 Alpha  occ. eigenvalues --   -0.71095  -0.70721  -0.69561  -0.69356  -0.68394
 Alpha  occ. eigenvalues --   -0.68251  -0.68239  -0.68238  -0.68121  -0.67540
 Alpha  occ. eigenvalues --   -0.67369  -0.67358  -0.67357  -0.67154  -0.66830
 Alpha  occ. eigenvalues --   -0.66562  -0.65822  -0.64941  -0.62355  -0.62196
 Alpha  occ. eigenvalues --   -0.61874  -0.60191  -0.59977  -0.59842  -0.59771
 Alpha  occ. eigenvalues --   -0.58897  -0.58885  -0.58883  -0.58294  -0.57728
 Alpha  occ. eigenvalues --   -0.57618  -0.57288  -0.56541  -0.56363  -0.55824
 Alpha  occ. eigenvalues --   -0.55142  -0.54403  -0.54161  -0.54121  -0.53729
 Alpha  occ. eigenvalues --   -0.53322  -0.53320  -0.53291  -0.53258  -0.53110
 Alpha  occ. eigenvalues --   -0.53059  -0.52835  -0.52605  -0.52430  -0.52397
 Alpha  occ. eigenvalues --   -0.52392  -0.52357  -0.52270  -0.52200  -0.51370
 Alpha  occ. eigenvalues --   -0.50970  -0.50942  -0.50895  -0.50876  -0.50845
 Alpha  occ. eigenvalues --   -0.50672  -0.50662  -0.50557  -0.50240  -0.49169
 Alpha  occ. eigenvalues --   -0.49059  -0.48492  -0.48277  -0.47709  -0.47646
 Alpha  occ. eigenvalues --   -0.47502  -0.47346  -0.47258  -0.46407  -0.46106
 Alpha  occ. eigenvalues --   -0.45866  -0.45799  -0.45630  -0.45424  -0.45139
 Alpha  occ. eigenvalues --   -0.44890  -0.44739  -0.44571  -0.44032  -0.43835
 Alpha  occ. eigenvalues --   -0.43707  -0.43696  -0.43249  -0.43218  -0.42865
 Alpha  occ. eigenvalues --   -0.42748  -0.42441  -0.42287  -0.42128  -0.42008
 Alpha  occ. eigenvalues --   -0.41969  -0.41952  -0.41947  -0.41828  -0.41471
 Alpha  occ. eigenvalues --   -0.40716  -0.40565  -0.40426  -0.38517  -0.37043
 Alpha  occ. eigenvalues --   -0.36774  -0.36756  -0.36749  -0.35114  -0.34887
 Alpha  occ. eigenvalues --   -0.34826  -0.34768  -0.32645  -0.32619  -0.32596
 Alpha  occ. eigenvalues --   -0.32589  -0.32580  -0.32538  -0.32250  -0.31893
 Alpha  occ. eigenvalues --   -0.31844  -0.30775  -0.29422  -0.29172  -0.28905
 Alpha  occ. eigenvalues --   -0.28332  -0.26693
 Alpha virt. eigenvalues --    0.00336   0.02287   0.02660   0.02671   0.02671
 Alpha virt. eigenvalues --    0.04188   0.04535   0.04539   0.04569   0.04608
 Alpha virt. eigenvalues --    0.04625   0.04939   0.06190   0.06229   0.06295

 Mulliken charges:
               1
     1  C   -0.048363
     2  C   -0.021186
     3  H    0.114302
     4  C    0.074767
     5  C   -0.054823
     6  C   -0.045845
     7  H    0.096246
     8  C   -0.092408
     9  H    0.116240
    10  C   -0.538008
    11  C   -0.065002
    12  C    0.084569
    13  C   -0.048358
    14  H    0.106569
    15  C   -0.103064
    16  H    0.108484
    17  C   -0.104057
    18  H    0.107071
    19  C   -0.049389
    20  H    0.096839
    21  C   -0.059575
    22  C    0.078645
    23  C   -0.047515
    24  H    0.107159
    25  C   -0.102474
    26  H    0.108750
    27  C   -0.103904
    28  H    0.107073
    29  C   -0.049331
    30  H    0.096487
    31  C    0.078300
    32  C   -0.059645
    33  C   -0.049422
    34  H    0.096827
    35  C   -0.104723
    36  H    0.107186
    37  C   -0.103662
    38  H    0.108758
    39  C   -0.050846
    40  H    0.107150
    41  C   -0.047966
    42  C   -0.021034
    43  H    0.113981
    44  C    0.079517
    45  C   -0.059566
    46  C   -0.045480
    47  H    0.096411
    48  C   -0.092396
    49  H    0.116224
    50  C   -0.544175
    51  C   -0.059654
    52  C    0.079788
    53  C   -0.020966
    54  H    0.114005
    55  C   -0.047944
    56  C   -0.092559
    57  H    0.116224
    58  C   -0.045466
    59  H    0.096413
    60  C   -0.059411
    61  C    0.077647
    62  C   -0.049672
    63  H    0.107513
    64  C   -0.103061
    65  H    0.108963
    66  C   -0.104363
    67  H    0.107141
    68  C   -0.049022
    69  H    0.096625
    70  C    0.077922
    71  C   -0.059425
    72  C   -0.048974
    73  H    0.096614
    74  C   -0.104380
    75  H    0.107141
    76  C   -0.103056
    77  H    0.108961
    78  C   -0.049650
    79  H    0.107503
    80  C   -0.048406
    81  C   -0.020976
    82  H    0.114334
    83  C    0.074698
    84  C   -0.054795
    85  C   -0.045844
    86  H    0.096248
    87  C   -0.092520
    88  H    0.116178
    89  C   -0.538063
    90  C   -0.064893
    91  C    0.084512
    92  C   -0.048408
    93  H    0.106578
    94  C   -0.103040
    95  H    0.108485
    96  C   -0.104056
    97  H    0.107074
    98  C   -0.049462
    99  H    0.096846
   100  C   -0.059692
   101  C    0.078323
   102  C   -0.050819
   103  H    0.107147
   104  C   -0.103668
   105  H    0.108765
   106  C   -0.104726
   107  H    0.107177
   108  C   -0.049392
   109  H    0.096821
   110  C    0.078656
   111  C   -0.059564
   112  C   -0.049303
   113  H    0.096483
   114  C   -0.103901
   115  H    0.107071
   116  C   -0.102480
   117  H    0.108745
   118  C   -0.047499
   119  H    0.107167
 Sum of Mulliken charges =   0.00000

 Dipole moment (field-independent basis, Debye):
    X=              0.0184    Y=             -0.0484    Z=             -0.0278  Tot=              0.0587
 Quadrupole moment (field-independent basis, Debye-Ang):
   XX=           -408.6357   YY=           -392.4304   ZZ=           -394.7165
   XY=             -8.2553   XZ=             -1.6042   YZ=              6.7869

 ESP charges:
               1
     1  C    0.083790
     2  C   -0.307073
     3  H    0.182569
     4  C    0.575076
     5  C   -0.033300
     6  C   -0.212944
     7  H    0.162946
     8  C   -0.198843
     9  H    0.151502
    10  C   -1.743780
    11  C    0.042304
    12  C    0.615058
    13  C   -0.286347
    14  H    0.183485
    15  C   -0.170727
    16  H    0.149891
    17  C   -0.142895
    18  H    0.141590
    19  C   -0.240373
    20  H    0.161267
    21  C   -0.047020
    22  C    0.677777
    23  C   -0.294314
    24  H    0.187286
    25  C   -0.168689
    26  H    0.151012
    27  C   -0.155520
    28  H    0.144448
    29  C   -0.210631
    30  H    0.156166
    31  C    0.611868
    32  C    0.058013
    33  C   -0.262274
    34  H    0.168920
    35  C   -0.157133
    36  H    0.146698
    37  C   -0.145844
    38  H    0.143141
    39  C   -0.293981
    40  H    0.189795
    41  C    0.026568
    42  C   -0.310067
    43  H    0.181024
    44  C    0.631170
    45  C    0.007340
    46  C   -0.259867
    47  H    0.169809
    48  C   -0.163331
    49  H    0.147705
    50  C   -1.909696
    51  C    0.103384
    52  C    0.526589
    53  C   -0.266410
    54  H    0.177643
    55  C    0.022943
    56  C   -0.174346
    57  H    0.151065
    58  C   -0.275079
    59  H    0.169666
    60  C    0.048928
    61  C    0.645587
    62  C   -0.224046
    63  H    0.175657
    64  C   -0.208051
    65  H    0.155311
    66  C   -0.127939
    67  H    0.141105
    68  C   -0.262104
    69  H    0.163419
    70  C    0.692485
    71  C    0.005344
    72  C   -0.234891
    73  H    0.158612
    74  C   -0.154858
    75  H    0.145876
    76  C   -0.179885
    77  H    0.150863
    78  C   -0.258656
    79  H    0.180619
    80  C    0.120804
    81  C   -0.343367
    82  H    0.189928
    83  C    0.497903
    84  C   -0.015111
    85  C   -0.228077
    86  H    0.163123
    87  C   -0.201201
    88  H    0.148823
    89  C   -1.494159
    90  C    0.139413
    91  C    0.418650
    92  C   -0.230845
    93  H    0.173464
    94  C   -0.171586
    95  H    0.145921
    96  C   -0.125452
    97  H    0.140604
    98  C   -0.288587
    99  H    0.168716
   100  C   -0.046167
   101  C    0.592996
   102  C   -0.244458
   103  H    0.172003
   104  C   -0.186967
   105  H    0.153524
   106  C   -0.154871
   107  H    0.143678
   108  C   -0.193196
   109  H    0.151100
   110  C    0.555864
   111  C    0.040104
   112  C   -0.245772
   113  H    0.162028
   114  C   -0.141312
   115  H    0.142159
   116  C   -0.177319
   117  H    0.147531
   118  C   -0.237665
   119  H    0.175376
 Sum of ESP charges =   0.00000

 Normal termination of Gaussian 16 at Tue Jun 15 16:48:32 2021.
