 Gaussian 16, Revision B.01,
 Gaussian 16:  ES64L-G16RevB.01 20-Dec-2017

 -----------------------------------
 #P wb97xd/6-311g(d,p) nosymm pop=MK
 -----------------------------------

 -------------------
 Title Card Required
 -------------------
 Symbolic Z-matrix:
 Charge =  0 Multiplicity = 1

                          Input orientation:
 ---------------------------------------------------------------------
 Center     Atomic      Atomic             Coordinates (Angstroms)
 Number     Number       Type             X           Y           Z
 ---------------------------------------------------------------------
      1          6           0       -0.068480    0.368610    0.128040
      2          6           0        1.325020    0.336990    0.126880
      3          6           0        2.026160    1.541680    0.126090
      4          6           0        1.356820    2.764310    0.125520
      5          6           0       -0.037010    2.769170    0.125930
      6          6           0       -0.761070    1.578190    0.127060
      7          1           0       -0.623450   -0.563420    0.129980
      8          1           0        3.110810    1.527180    0.126330
      9          1           0       -0.566920    3.715680    0.125910
     10          6           0        1.724760    5.104640    0.939560
     11          6           0        2.114610    4.041090    0.123660
     12          6           0        3.235040    4.198020   -0.691240
     13          6           0        3.966170    5.385090   -0.700460
     14          6           0        3.559250    6.434410    0.124780
     15          6           0        2.443310    6.291700    0.936760
     16          1           0        0.867620    4.992370    1.594140
     17          1           0        3.544930    3.378240   -1.330830
     18          1           0        4.104900    7.371270    0.112400
     19          1           0        2.131720    7.111640    1.573560
     20          6           0        6.314140    6.158090   -1.135600
     21          6           0        5.151350    5.529410   -1.579680
     22          6           0        5.154510    5.042340   -2.886340
     23          6           0        6.291290    5.202580   -3.666290
     24          7           0        7.403690    5.801860   -3.245120
     25          6           0        7.397080    6.266240   -1.996830
     26          1           0        6.385680    6.540210   -0.123860
     27          1           0        4.275390    4.563360   -3.301610
     28          1           0        6.306100    4.833490   -4.688060
     29          1           0        8.311760    6.748040   -1.662530
     30          6           0        3.167780   -1.152910    0.940150
     31          6           0        2.051390   -0.957920    0.125030
     32          6           0        1.625600   -2.006410   -0.689530
     33          6           0        2.286820   -3.233760   -0.698920
     34          6           0        3.399440   -3.406920    0.125580
     35          6           0        3.835430   -2.369390    0.937040
     36          1           0        3.500270   -0.354620    1.594340
     37          1           0        0.760520   -1.864240   -1.328720
     38          1           0        3.937080   -4.348400    0.113030
     39          1           0        4.701620   -2.510200    1.573270
     40          6           0        1.779480   -5.653290   -1.132440
     41          6           0        1.817090   -4.332190   -1.577140
     42          6           0        1.391940   -4.091560   -2.883210
     43          6           0        0.959820   -5.156060   -3.661940
     44          7           0        0.921950   -6.418850   -3.240170
     45          6           0        1.329280   -6.645190   -1.992460
     46          1           0        2.075850   -5.906140   -0.121010
     47          1           0        1.417040   -3.090950   -3.298970
     48          1           0        0.631240   -4.984430   -4.683240
     49          1           0        1.288670   -7.678030   -1.657620
     50          6           0       -2.971960    0.731900    0.946840
     51          6           0       -2.245680    1.596500    0.126010
     52          6           0       -2.941490    2.484500   -0.693300
     53          6           0       -4.335060    2.525030   -0.702060
     54          6           0       -5.040590    1.653090    0.128390
     55          6           0       -4.359280    0.761840    0.944790
     56          1           0       -2.446180    0.048740    1.604570
     57          1           0       -2.386250    3.158930   -1.336750
     58          1           0       -6.124770    1.658040    0.116570
     59          1           0       -4.913730    0.085930    1.585590
     60          6           0       -6.178240    4.169830   -1.146420
     61          6           0       -5.052250    3.474790   -1.586390
     62          6           0       -4.631400    3.714220   -2.894120
     63          6           0       -5.338100    4.614640   -3.679020
     64          7           0       -6.413400    5.280660   -3.261800
     65          6           0       -6.812890    5.049210   -2.012500
     66          1           0       -6.545420    4.045940   -0.134200
     67          1           0       -3.776880    3.190170   -3.306280
     68          1           0       -5.025370    4.806730   -4.701660
     69          1           0       -7.687590    5.602270   -1.681500
 ---------------------------------------------------------------------

 SCF Done:  E(RwB97XD) =  -1666.49255060     A.U. after   14 cycles

 Alpha  occ. eigenvalues --  -14.42809 -14.42809 -14.42808 -10.32366 -10.32366
 Alpha  occ. eigenvalues --  -10.32366 -10.32357 -10.32356 -10.32356 -10.32265
 Alpha  occ. eigenvalues --  -10.32265 -10.32264 -10.31485 -10.31485 -10.31485
 Alpha  occ. eigenvalues --  -10.31458 -10.31458 -10.31456 -10.31420 -10.31419
 Alpha  occ. eigenvalues --  -10.31418 -10.30287 -10.30286 -10.30286 -10.30259
 Alpha  occ. eigenvalues --  -10.30259 -10.30258 -10.30198 -10.30198 -10.30197
 Alpha  occ. eigenvalues --  -10.30148 -10.30147 -10.30146 -10.30114 -10.30113
 Alpha  occ. eigenvalues --  -10.30111 -10.29980 -10.29980 -10.29980 -10.29968
 Alpha  occ. eigenvalues --  -10.29968 -10.29967  -1.05295  -1.05295  -1.05294
 Alpha  occ. eigenvalues --   -1.00273  -0.98868  -0.98867  -0.97275  -0.93462
 Alpha  occ. eigenvalues --   -0.93461  -0.92650  -0.90043  -0.90042  -0.87082
 Alpha  occ. eigenvalues --   -0.86955  -0.86955  -0.86210  -0.85926  -0.85925
 Alpha  occ. eigenvalues --   -0.85691  -0.83435  -0.83434  -0.75613  -0.75610
 Alpha  occ. eigenvalues --   -0.74971  -0.74297  -0.74296  -0.74208  -0.72912
 Alpha  occ. eigenvalues --   -0.72911  -0.71634  -0.69959  -0.69957  -0.69827
 Alpha  occ. eigenvalues --   -0.67257  -0.67255  -0.65043  -0.62779  -0.62778
 Alpha  occ. eigenvalues --   -0.60877  -0.59572  -0.59571  -0.59495  -0.59063
 Alpha  occ. eigenvalues --   -0.58641  -0.58640  -0.57585  -0.57269  -0.56755
 Alpha  occ. eigenvalues --   -0.56754  -0.55658  -0.55408  -0.55407  -0.54550
 Alpha  occ. eigenvalues --   -0.54156  -0.54155  -0.52858  -0.52454  -0.52453
 Alpha  occ. eigenvalues --   -0.51911  -0.51837  -0.51836  -0.50600  -0.50600
 Alpha  occ. eigenvalues --   -0.50598  -0.49808  -0.49808  -0.49715  -0.48538
 Alpha  occ. eigenvalues --   -0.47890  -0.47888  -0.46992  -0.46988  -0.46383
 Alpha  occ. eigenvalues --   -0.46001  -0.45353  -0.45353  -0.44719  -0.44269
 Alpha  occ. eigenvalues --   -0.44268  -0.43859  -0.42854  -0.42849  -0.39400
 Alpha  occ. eigenvalues --   -0.39398  -0.38683  -0.37133  -0.37128  -0.34775
 Alpha  occ. eigenvalues --   -0.34774  -0.34774  -0.34552  -0.34421  -0.34421
 Alpha  occ. eigenvalues --   -0.33995  -0.33201  -0.33200  -0.32686  -0.31321
 Alpha  occ. eigenvalues --   -0.31316
 Alpha virt. eigenvalues --    0.00709   0.00713   0.01199   0.01985   0.01992
 Alpha virt. eigenvalues --    0.04319   0.04808   0.04808   0.04835   0.06548
 Alpha virt. eigenvalues --    0.06553   0.07301   0.08651   0.08661   0.11482

 Mulliken charges:
               1
     1  C   -0.066459
     2  C   -0.052502
     3  C   -0.066530
     4  C   -0.052488
     5  C   -0.066490
     6  C   -0.052779
     7  H    0.123299
     8  H    0.123268
     9  H    0.123305
    10  C   -0.081599
    11  C   -0.066281
    12  C   -0.064091
    13  C   -0.050935
    14  C   -0.080955
    15  C   -0.104709
    16  H    0.118751
    17  H    0.125029
    18  H    0.117654
    19  H    0.113245
    20  C   -0.191067
    21  C    0.030006
    22  C   -0.190829
    23  C    0.069203
    24  N   -0.304906
    25  C    0.069176
    26  H    0.119059
    27  H    0.121069
    28  H    0.124203
    29  H    0.123791
    30  C   -0.081655
    31  C   -0.066213
    32  C   -0.064188
    33  C   -0.050800
    34  C   -0.081079
    35  C   -0.104684
    36  H    0.118725
    37  H    0.125103
    38  H    0.117660
    39  H    0.113257
    40  C   -0.191014
    41  C    0.030024
    42  C   -0.190888
    43  C    0.069169
    44  N   -0.304879
    45  C    0.069151
    46  H    0.119058
    47  H    0.121075
    48  H    0.124203
    49  H    0.123790
    50  C   -0.081496
    51  C   -0.066577
    52  C   -0.064175
    53  C   -0.050716
    54  C   -0.081057
    55  C   -0.104665
    56  H    0.118713
    57  H    0.125095
    58  H    0.117663
    59  H    0.113260
    60  C   -0.191094
    61  C    0.030120
    62  C   -0.190868
    63  C    0.069166
    64  N   -0.304899
    65  C    0.069167
    66  H    0.119044
    67  H    0.121086
    68  H    0.124194
    69  H    0.123785
 Sum of Mulliken charges =   0.00000

 Dipole moment (field-independent basis, Debye):
    X=              0.0029    Y=              0.0074    Z=              4.6271  Tot=              4.6271
 Quadrupole moment (field-independent basis, Debye-Ang):
   XX=           -259.3417   YY=           -259.2883   ZZ=           -250.4993
   XY=             -0.1163   XZ=              2.8821   YZ=              7.2562

 ESP charges:
               1
     1  C   -0.138022
     2  C   -0.001419
     3  C   -0.137983
     4  C    0.020270
     5  C   -0.145341
     6  C    0.000891
     7  H    0.117471
     8  H    0.118181
     9  H    0.120009
    10  C   -0.145493
    11  C    0.054808
    12  C   -0.150564
    13  C   -0.017265
    14  C   -0.188058
    15  C   -0.126773
    16  H    0.128743
    17  H    0.119180
    18  H    0.147924
    19  H    0.139821
    20  C   -0.617966
    21  C    0.481415
    22  C   -0.565967
    23  C    0.461821
    24  N   -0.667312
    25  C    0.495896
    26  H    0.204350
    27  H    0.187150
    28  H    0.036712
    29  H    0.027520
    30  C   -0.152114
    31  C    0.086471
    32  C   -0.171082
    33  C   -0.044269
    34  C   -0.176142
    35  C   -0.123053
    36  H    0.127966
    37  H    0.127343
    38  H    0.143405
    39  H    0.138315
    40  C   -0.626253
    41  C    0.521633
    42  C   -0.589844
    43  C    0.463024
    44  N   -0.667708
    45  C    0.498983
    46  H    0.204197
    47  H    0.194842
    48  H    0.037377
    49  H    0.026409
    50  C   -0.166688
    51  C    0.098841
    52  C   -0.196077
    53  C    0.011302
    54  C   -0.201276
    55  C   -0.116333
    56  H    0.131860
    57  H    0.130956
    58  H    0.147668
    59  H    0.139422
    60  C   -0.649033
    61  C    0.503337
    62  C   -0.609832
    63  C    0.495671
    64  N   -0.689005
    65  C    0.538701
    66  H    0.208074
    67  H    0.198211
    68  H    0.029253
    69  H    0.015452
 Sum of ESP charges =   0.00000

 1\1\GINC-THINC350\SP\RwB97XD\6-311G(d,p)\C39H27N3\LINK\15-Jun-2021\0\\
 #P wb97xd/6-311g(d,p) nosymm pop=MK\\Title Card Required\\0,1\C,0,-0.0
 6848,0.36861,0.12804\C,0,1.32502,0.33699,0.12688\C,0,2.02616,1.54168,0
 .12609\C,0,1.35682,2.76431,0.12552\C,0,-0.03701,2.76917,0.12593\C,0,-0
 .76107,1.57819,0.12706\H,0,-0.62345,-0.56342,0.12998\H,0,3.11081,1.527
 18,0.12633\H,0,-0.56692,3.71568,0.12591\C,0,1.72476,5.10464,0.93956\C,
 0,2.11461,4.04109,0.12366\C,0,3.23504,4.19802,-0.69124\C,0,3.96617,5.3
 8509,-0.70046\C,0,3.55925,6.43441,0.12478\C,0,2.44331,6.2917,0.93676\H

 Normal termination of Gaussian 16 at Tue Jun 15 15:22:58 2021.
