 Gaussian 16, Revision B.01,
 Gaussian 16:  ES64L-G16RevB.01 20-Dec-2017

 -----------------------------------
 #P wb97xd/6-311g(d,p) nosymm pop=MK
 -----------------------------------

 -------------------
 Title Card Required
 -------------------
 Symbolic Z-matrix:
 Charge =  0 Multiplicity = 1

                          Input orientation:
 ---------------------------------------------------------------------
 Center     Atomic      Atomic             Coordinates (Angstroms)
 Number     Number       Type             X           Y           Z
 ---------------------------------------------------------------------
      1          7           0       -0.006450    0.001200    0.173050
      2          6           0       -1.415810   -0.094410    0.179300
      3          6           0       -2.190090    0.767580   -0.598910
      4          6           0       -3.571410    0.675390   -0.585370
      5          6           0       -4.225020   -0.283710    0.193000
      6          6           0       -3.440850   -1.142250    0.969270
      7          6           0       -2.060080   -1.050480    0.967210
      8          1           0       -1.702020    1.508570   -1.220870
      9          1           0       -4.149920    1.340620   -1.217200
     10          1           0       -3.923240   -1.871290    1.610520
     11          1           0       -1.470780   -1.716530    1.586340
     12          6           0        0.615650    1.269620    0.174220
     13          6           0        1.742790    1.508940   -0.613390
     14          6           0        2.354750    2.750750   -0.603790
     15          6           0        1.858320    3.795900    0.179920
     16          6           0        0.728540    3.546610    0.964860
     17          6           0        0.116610    2.305400    0.966680
     18          1           0        2.134580    0.715900   -1.239240
     19          1           0        3.215020    2.919020   -1.242550
     20          1           0        0.344240    4.328770    1.609780
     21          1           0       -0.750130    2.128040    1.592430
     22          6           0        0.781580   -1.171300    0.172520
     23          6           0        1.933400   -1.253580    0.957650
     24          6           0        2.704390   -2.402720    0.953120
     25          6           0        2.352280   -3.508030    0.172810
     26          6           0        1.193110   -3.419280   -0.602670
     27          6           0        0.421560   -2.269760   -0.609690
     28          1           0        2.216120   -0.412530    1.579690
     29          1           0        3.578480   -2.457860    1.592110
     30          1           0        0.905700   -4.250470   -1.237450
     31          1           0       -0.465550   -2.215690   -1.229550
     32          6           0       -5.687670   -0.409090    0.201010
     33          6           0       -6.436450   -1.544490    0.339420
     34         16           0       -6.718310    0.976490    0.030890
     35          6           0       -7.834010   -1.305180    0.309530
     36          1           0       -5.995460   -2.527600    0.440840
     37          6           0       -8.156630    0.012770    0.146300
     38          1           0       -8.580910   -2.080220    0.422290
     39          6           0       -9.495070    0.615270    0.064350
     40          6           0       -9.758320    1.883690    0.589270
     41          6           0      -10.540830   -0.088720   -0.540580
     42          6           0      -11.031340    2.430780    0.512400
     43          1           0       -8.964200    2.437770    1.077940
     44          6           0      -11.815220    0.455400   -0.605860
     45          1           0      -10.344260   -1.060480   -0.979270
     46          6           0      -12.065620    1.718110   -0.081660
     47          1           0      -11.217350    3.414950    0.927150
     48          1           0      -12.613650   -0.104360   -1.079740
     49          1           0      -13.060190    2.145150   -0.138520
     50          6           0        2.483650    5.124110    0.185080
     51          6           0        1.878810    6.341620    0.329050
     52         16           0        4.198320    5.319740    0.003600
     53          6           0        2.787400    7.429980    0.294480
     54          1           0        0.807920    6.453880    0.437920
     55          6           0        4.088020    7.047420    0.122070
     56          1           0        2.492950    8.464920    0.410570
     57          6           0        5.280830    7.902160    0.034110
     58          6           0        6.513670    7.490120    0.547980
     59          6           0        5.193390    9.162460   -0.565150
     60          6           0        7.625970    8.315840    0.466030
     61          1           0        6.597280    6.523110    1.032050
     62          6           0        6.303920    9.990880   -0.635420
     63          1           0        4.251290    9.482920   -0.995440
     64          6           0        7.525320    9.570600   -0.122160
     65          1           0        8.573380    7.980140    0.872150
     66          1           0        6.217700   10.964440   -1.104610
     67          1           0        8.393930   10.216050   -0.182880
     68          6           0        3.193290   -4.711300    0.173340
     69          6           0        4.551540   -4.791530    0.305860
     70         16           0        2.509130   -6.296510   -0.000100
     71          6           0        5.044010   -6.120970    0.268730
     72          1           0        5.182140   -3.917910    0.407960
     73          6           0        4.064040   -7.059520    0.105930
     74          1           0        6.089340   -6.379860    0.376070
     75          6           0        4.212090   -8.519480    0.018090
     76          6           0        3.247300   -9.384110    0.542800
     77          6           0        5.343000   -9.070480   -0.592250
     78          6           0        3.410400  -10.759720    0.460460
     79          1           0        2.371590   -8.975800    1.035570
     80          6           0        5.509430  -10.445880   -0.662980
     81          1           0        6.084680   -8.412480   -1.030830
     82          6           0        4.543140  -11.296480   -0.138890
     83          1           0        2.652610  -11.414720    0.875150
     84          1           0        6.392240  -10.855270   -1.140920
     85          1           0        4.670960  -12.371050   -0.199980
 ---------------------------------------------------------------------

 SCF Done:  E(RwB97XD) =  -3098.10189187     A.U. after   16 cycles

 Alpha  occ. eigenvalues --  -89.04316 -89.04315 -89.04314 -14.46952 -10.33753
 Alpha  occ. eigenvalues --  -10.33753 -10.33752 -10.32270 -10.32266 -10.32264
 Alpha  occ. eigenvalues --  -10.32192 -10.32189 -10.32186 -10.30924 -10.30921
 Alpha  occ. eigenvalues --  -10.30920 -10.30791 -10.30784 -10.30780 -10.29637
 Alpha  occ. eigenvalues --  -10.29633 -10.29632 -10.29630 -10.29630 -10.29628
 Alpha  occ. eigenvalues --  -10.29306 -10.29299 -10.29297 -10.29291 -10.29288
 Alpha  occ. eigenvalues --  -10.29284 -10.29234 -10.29232 -10.29231 -10.29229
 Alpha  occ. eigenvalues --  -10.29227 -10.29227 -10.29176 -10.29174 -10.29174
 Alpha  occ. eigenvalues --  -10.29164 -10.29162 -10.29162 -10.29045 -10.29044
 Alpha  occ. eigenvalues --  -10.29043 -10.28938 -10.28935 -10.28933 -10.28884
 Alpha  occ. eigenvalues --  -10.28880 -10.28877  -8.08434  -8.08433  -8.08431
 Alpha  occ. eigenvalues --   -6.03262  -6.03260  -6.03259  -6.02884  -6.02882
 Alpha  occ. eigenvalues --   -6.02881  -6.02541  -6.02539  -6.02538  -1.08337
 Alpha  occ. eigenvalues --   -1.00063  -1.00060  -0.99981  -0.97579  -0.97576
 Alpha  occ. eigenvalues --   -0.96882  -0.96299  -0.96297  -0.95228  -0.89586
 Alpha  occ. eigenvalues --   -0.89585  -0.88327  -0.86867  -0.86866  -0.85899
 Alpha  occ. eigenvalues --   -0.85896  -0.85883  -0.85493  -0.85469  -0.85468
 Alpha  occ. eigenvalues --   -0.84614  -0.83462  -0.83460  -0.83206  -0.80844
 Alpha  occ. eigenvalues --   -0.80842  -0.78918  -0.74189  -0.74187  -0.72050
 Alpha  occ. eigenvalues --   -0.71895  -0.71893  -0.71110  -0.70872  -0.70870
 Alpha  occ. eigenvalues --   -0.70797  -0.70032  -0.70030  -0.68175  -0.64839
 Alpha  occ. eigenvalues --   -0.64830  -0.64827  -0.64549  -0.64548  -0.64450
 Alpha  occ. eigenvalues --   -0.63254  -0.63251  -0.62094  -0.61682  -0.61680
 Alpha  occ. eigenvalues --   -0.59302  -0.58757  -0.58756  -0.57162  -0.55762
 Alpha  occ. eigenvalues --   -0.55759  -0.55668  -0.55325  -0.55322  -0.54551
 Alpha  occ. eigenvalues --   -0.54425  -0.54424  -0.53936  -0.53821  -0.53819
 Alpha  occ. eigenvalues --   -0.52992  -0.51991  -0.51666  -0.51662  -0.51583
 Alpha  occ. eigenvalues --   -0.51583  -0.51327  -0.51267  -0.51266  -0.49624
 Alpha  occ. eigenvalues --   -0.49578  -0.49574  -0.49410  -0.49308  -0.49305
 Alpha  occ. eigenvalues --   -0.48051  -0.47344  -0.47339  -0.46862  -0.46844
 Alpha  occ. eigenvalues --   -0.46842  -0.46513  -0.45714  -0.45712  -0.45710
 Alpha  occ. eigenvalues --   -0.45315  -0.45311  -0.44575  -0.44063  -0.44060
 Alpha  occ. eigenvalues --   -0.43754  -0.43494  -0.43491  -0.43186  -0.42932
 Alpha  occ. eigenvalues --   -0.42929  -0.41972  -0.41716  -0.41715  -0.40489
 Alpha  occ. eigenvalues --   -0.37533  -0.37528  -0.35678  -0.34922  -0.34134
 Alpha  occ. eigenvalues --   -0.34133  -0.33725  -0.33723  -0.33721  -0.33582
 Alpha  occ. eigenvalues --   -0.33580  -0.33220  -0.33175  -0.33173  -0.30284
 Alpha  occ. eigenvalues --   -0.28228  -0.28226  -0.24992
 Alpha virt. eigenvalues --    0.00614   0.00619   0.01874   0.03418   0.04514
 Alpha virt. eigenvalues --    0.04517   0.05415   0.05437   0.05438   0.05983
 Alpha virt. eigenvalues --    0.05986   0.06662   0.09221   0.09223   0.09715

 Mulliken charges:
               1
     1  N   -0.521091
     2  C    0.125216
     3  C   -0.104537
     4  C   -0.112175
     5  C    0.001999
     6  C   -0.071030
     7  C   -0.104783
     8  H    0.130633
     9  H    0.124320
    10  H    0.114111
    11  H    0.130800
    12  C    0.123900
    13  C   -0.104042
    14  C   -0.112278
    15  C    0.002220
    16  C   -0.070980
    17  C   -0.104277
    18  H    0.130532
    19  H    0.124423
    20  H    0.114144
    21  H    0.130741
    22  C    0.124484
    23  C   -0.104500
    24  C   -0.071011
    25  C    0.001929
    26  C   -0.112117
    27  C   -0.104192
    28  H    0.130735
    29  H    0.114133
    30  H    0.124376
    31  H    0.130591
    32  C   -0.270433
    33  C   -0.060421
    34  S    0.312875
    35  C   -0.059515
    36  H    0.115429
    37  C   -0.269521
    38  H    0.116358
    39  C   -0.001466
    40  C   -0.115677
    41  C   -0.075908
    42  C   -0.107487
    43  H    0.122666
    44  C   -0.108574
    45  H    0.112602
    46  C   -0.103441
    47  H    0.110507
    48  H    0.110479
    49  H    0.110728
    50  C   -0.270605
    51  C   -0.060338
    52  S    0.312962
    53  C   -0.059495
    54  H    0.115434
    55  C   -0.269582
    56  H    0.116328
    57  C   -0.001193
    58  C   -0.115853
    59  C   -0.075854
    60  C   -0.107472
    61  H    0.122678
    62  C   -0.108616
    63  H    0.112563
    64  C   -0.103418
    65  H    0.110501
    66  H    0.110477
    67  H    0.110728
    68  C   -0.270462
    69  C   -0.060407
    70  S    0.312900
    71  C   -0.059448
    72  H    0.115452
    73  C   -0.269523
    74  H    0.116341
    75  C   -0.001493
    76  C   -0.115660
    77  C   -0.075821
    78  C   -0.107516
    79  H    0.122670
    80  C   -0.108627
    81  H    0.112568
    82  C   -0.103402
    83  H    0.110498
    84  H    0.110480
    85  H    0.110729
 Sum of Mulliken charges =   0.00000

 Dipole moment (field-independent basis, Debye):
    X=              0.0092    Y=              0.0054    Z=              0.1669  Tot=              0.1673
 Quadrupole moment (field-independent basis, Debye-Ang):
   XX=           -281.4098   YY=           -281.3949   ZZ=           -329.2778
   XY=              0.0156   XZ=             -0.1554   YZ=              0.1099

 ESP charges:
               1
     1  N   -0.486455
     2  C    0.349662
     3  C   -0.264695
     4  C   -0.135960
     5  C    0.087697
     6  C   -0.160425
     7  C   -0.273421
     8  H    0.169520
     9  H    0.142071
    10  H    0.145863
    11  H    0.177292
    12  C    0.323483
    13  C   -0.268300
    14  C   -0.122355
    15  C    0.084386
    16  C   -0.160424
    17  C   -0.254646
    18  H    0.171839
    19  H    0.137123
    20  H    0.144156
    21  H    0.172893
    22  C    0.351549
    23  C   -0.277780
    24  C   -0.157008
    25  C    0.097134
    26  C   -0.137202
    27  C   -0.271810
    28  H    0.180301
    29  H    0.142943
    30  H    0.142723
    31  H    0.171023
    32  C   -0.020268
    33  C   -0.212405
    34  S   -0.013333
    35  C   -0.130914
    36  H    0.161487
    37  C   -0.091327
    38  H    0.143980
    39  C    0.127459
    40  C   -0.095513
    41  C   -0.159306
    42  C   -0.181284
    43  H    0.120823
    44  C   -0.167726
    45  H    0.137224
    46  C   -0.110608
    47  H    0.144459
    48  H    0.144675
    49  H    0.130728
    50  C   -0.036255
    51  C   -0.189483
    52  S   -0.006475
    53  C   -0.144752
    54  H    0.156671
    55  C   -0.089183
    56  H    0.145693
    57  C    0.146594
    58  C   -0.131962
    59  C   -0.173288
    60  C   -0.163502
    61  H    0.129432
    62  C   -0.148009
    63  H    0.138985
    64  C   -0.116832
    65  H    0.142335
    66  H    0.138734
    67  H    0.128525
    68  C   -0.038047
    69  C   -0.193700
    70  S   -0.007602
    71  C   -0.136818
    72  H    0.157635
    73  C   -0.096234
    74  H    0.144203
    75  C    0.153063
    76  C   -0.136216
    77  C   -0.165461
    78  C   -0.164895
    79  H    0.131813
    80  C   -0.144360
    81  H    0.133676
    82  C   -0.136874
    83  H    0.146331
    84  H    0.139330
    85  H    0.137597
 Sum of ESP charges =   0.00000

 Normal termination of Gaussian 16 at Tue Jun 15 15:38:59 2021.
