 Gaussian 16, Revision B.01,
 Gaussian 16:  ES64L-G16RevB.01 20-Dec-2017

 -----------------------------------
 #P wb97xd/6-311g(d,p) nosymm pop=MK
 -----------------------------------

 -------------------
 Title Card Required
 -------------------
 Symbolic Z-matrix:
 Charge =  0 Multiplicity = 1

                          Input orientation:
 ---------------------------------------------------------------------
 Center     Atomic      Atomic             Coordinates (Angstroms)
 Number     Number       Type             X           Y           Z
 ---------------------------------------------------------------------
      1          7           0       -2.579880    0.664340   -0.382100
      2          6           0       -3.751890   -0.033640   -0.672290
      3          6           0       -4.715380    0.270180    0.306620
      4          6           0       -4.095730    1.194880    1.232730
      5          6           0       -2.782670    1.411710    0.776420
      6          6           0       -4.013730   -0.933320   -1.703320
      7          6           0       -5.274130   -1.508250   -1.746470
      8          6           0       -6.249880   -1.204560   -0.790390
      9          6           0       -5.975270   -0.320690    0.240150
     10          6           0       -4.544830    1.850690    2.376820
     11          6           0       -3.684100    2.709400    3.040050
     12          6           0       -2.385770    2.924570    2.564100
     13          6           0       -1.916050    2.285160    1.427720
     14          1           0       -3.264520   -1.185620   -2.444490
     15          1           0       -5.503910   -2.211960   -2.538550
     16          1           0       -7.225720   -1.670810   -0.856090
     17          1           0       -6.727160   -0.093780    0.987660
     18          1           0       -5.554670    1.692790    2.738640
     19          1           0       -4.017760    3.225800    3.932170
     20          1           0       -1.731690    3.609230    3.091530
     21          1           0       -0.914640    2.470720    1.059120
     22          6           0       -0.182870    0.277750   -0.510400
     23          6           0        0.979820    0.151000   -1.264150
     24          6           0        0.935870    0.299690   -2.649870
     25          6           0       -0.271560    0.628730   -3.238760
     26          6           0       -1.391470    0.584440   -1.131750
     27          6           0       -1.433880    0.797000   -2.504030
     28          1           0       -0.149340    0.130340    0.562100
     29          1           0        1.823350    0.163200   -3.255380
     30          1           0       -2.359590    1.086980   -2.984620
     31          7           0        2.197880   -0.161200   -0.630240
     32          6           0        3.390790    0.548210   -0.771140
     33          6           0        4.376800   -0.057980    0.028070
     34          6           0        3.752300   -1.189510    0.680120
     35          6           0        2.412880   -1.220470    0.250580
     36          6           0        3.655720    1.692920   -1.518090
     37          6           0        4.940240    2.210440   -1.462350
     38          6           0        5.936340    1.613110   -0.681710
     39          6           0        5.660370    0.482020    0.068210
     40          6           0        4.217220   -2.164130    1.560130
     41          6           0        3.346450   -3.151360    1.990920
     42          6           0        2.021490   -3.176870    1.541850
     43          6           0        1.535370   -2.218650    0.666120
     44          1           0        2.891710    2.168250   -2.120830
     45          1           0        5.174680    3.098710   -2.037430
     46          1           0        6.930230    2.044130   -0.663400
     47          1           0        6.429100    0.023720    0.680320
     48          1           0        5.247330   -2.150320    1.898270
     49          1           0        3.692570   -3.915130    2.677070
     50          1           0        1.358320   -3.963640    1.882600
     51          1           0        0.511300   -2.255700    0.315410
     52         16           0       -0.376760    0.747030   -5.024540
     53          6           0       -1.184580   -0.798160   -5.423470
     54          6           0       -2.570720   -0.829050   -5.509210
     55          6           0       -0.414340   -1.942710   -5.580880
     56          6           0       -3.198780   -2.043760   -5.751110
     57          1           0       -3.139110    0.087370   -5.405750
     58          6           0       -1.054370   -3.150180   -5.825000
     59          1           0        0.665810   -1.880080   -5.526600
     60          6           0       -2.442050   -3.200450   -5.903720
     61          1           0       -4.278930   -2.084220   -5.826890
     62          1           0       -0.468860   -4.052220   -5.956360
     63          1           0       -2.936290   -4.146420   -6.092500
     64          8           0       -1.295730    1.824120   -5.346860
     65          8           0        0.978710    0.709210   -5.544770
 ---------------------------------------------------------------------

 SCF Done:  E(RwB97XD) =  -2044.23809572     A.U. after   18 cycles

 Alpha  occ. eigenvalues --  -89.22978 -19.24618 -19.24521 -14.49532 -14.49365
 Alpha  occ. eigenvalues --  -10.36742 -10.36738 -10.34481 -10.33787 -10.33765
 Alpha  occ. eigenvalues --  -10.33679 -10.33582 -10.33465 -10.32563 -10.32538
 Alpha  occ. eigenvalues --  -10.32415 -10.32203 -10.32188 -10.31830 -10.31661
 Alpha  occ. eigenvalues --  -10.31607 -10.29879 -10.29792 -10.29769 -10.29730
 Alpha  occ. eigenvalues --  -10.29673 -10.29632 -10.29623 -10.29612 -10.29582
 Alpha  occ. eigenvalues --  -10.29579 -10.29519 -10.29426 -10.29400 -10.29382
 Alpha  occ. eigenvalues --  -10.29356 -10.29171 -10.28919 -10.28753 -10.28695
 Alpha  occ. eigenvalues --  -10.28541  -8.24831  -6.19612  -6.19537  -6.19484
 Alpha  occ. eigenvalues --   -1.22904  -1.12214  -1.11829  -1.11423  -1.01235
 Alpha  occ. eigenvalues --   -0.99677  -0.97382  -0.96417  -0.96184  -0.96043
 Alpha  occ. eigenvalues --   -0.91616  -0.91211  -0.89404  -0.88180  -0.88078
 Alpha  occ. eigenvalues --   -0.87520  -0.86492  -0.86300  -0.83753  -0.83251
 Alpha  occ. eigenvalues --   -0.82982  -0.82770  -0.80097  -0.76825  -0.76230
 Alpha  occ. eigenvalues --   -0.74112  -0.73437  -0.73115  -0.71603  -0.71428
 Alpha  occ. eigenvalues --   -0.71046  -0.68567  -0.68296  -0.67923  -0.67809
 Alpha  occ. eigenvalues --   -0.65743  -0.63933  -0.62802  -0.62753  -0.62036
 Alpha  occ. eigenvalues --   -0.61724  -0.60542  -0.59855  -0.59712  -0.59512
 Alpha  occ. eigenvalues --   -0.58199  -0.57807  -0.56007  -0.55898  -0.55660
 Alpha  occ. eigenvalues --   -0.55484  -0.55289  -0.54509  -0.54180  -0.54031
 Alpha  occ. eigenvalues --   -0.53863  -0.53476  -0.53168  -0.52737  -0.52285
 Alpha  occ. eigenvalues --   -0.52082  -0.52064  -0.51462  -0.51209  -0.50201
 Alpha  occ. eigenvalues --   -0.49657  -0.49560  -0.48803  -0.47762  -0.46010
 Alpha  occ. eigenvalues --   -0.45947  -0.45837  -0.45809  -0.45726  -0.45659
 Alpha  occ. eigenvalues --   -0.45515  -0.44010  -0.43358  -0.43303  -0.43079
 Alpha  occ. eigenvalues --   -0.42793  -0.42718  -0.42301  -0.42009  -0.40262
 Alpha  occ. eigenvalues --   -0.38518  -0.38269  -0.37640  -0.37199  -0.36498
 Alpha  occ. eigenvalues --   -0.36004  -0.35479  -0.34450  -0.34247  -0.29898
 Alpha  occ. eigenvalues --   -0.29672  -0.28584  -0.28390
 Alpha virt. eigenvalues --   -0.00676   0.01264   0.02010   0.02238   0.02983
 Alpha virt. eigenvalues --    0.03444   0.05722   0.05958   0.08187   0.08854
 Alpha virt. eigenvalues --    0.09387   0.09800   0.10022   0.11788   0.12122

 Mulliken charges:
               1
     1  N   -0.631888
     2  C    0.224689
     3  C   -0.091550
     4  C   -0.104035
     5  C    0.240798
     6  C   -0.085060
     7  C   -0.115476
     8  C   -0.118296
     9  C   -0.053049
    10  C   -0.052249
    11  C   -0.119821
    12  C   -0.105464
    13  C   -0.086326
    14  H    0.136469
    15  H    0.105411
    16  H    0.107430
    17  H    0.100336
    18  H    0.099899
    19  H    0.108594
    20  H    0.111537
    21  H    0.128312
    22  C   -0.084461
    23  C    0.145406
    24  C   -0.036876
    25  C   -0.306321
    26  C    0.147398
    27  C   -0.027211
    28  H    0.171683
    29  H    0.175079
    30  H    0.166794
    31  N   -0.630067
    32  C    0.231072
    33  C   -0.098113
    34  C   -0.101261
    35  C    0.237018
    36  C   -0.082742
    37  C   -0.107002
    38  C   -0.119379
    39  C   -0.053644
    40  C   -0.052834
    41  C   -0.120283
    42  C   -0.106686
    43  C   -0.088574
    44  H    0.132525
    45  H    0.112471
    46  H    0.108171
    47  H    0.099262
    48  H    0.100019
    49  H    0.107805
    50  H    0.109848
    51  H    0.126542
    52  S    1.049931
    53  C   -0.316546
    54  C   -0.057390
    55  C   -0.027157
    56  C   -0.103488
    57  H    0.158724
    58  C   -0.099377
    59  H    0.149179
    60  C   -0.090906
    61  H    0.126155
    62  H    0.125614
    63  H    0.123759
    64  O   -0.494800
    65  O   -0.499601
 Sum of Mulliken charges =   0.00000

 Dipole moment (field-independent basis, Debye):
    X=             -1.7057    Y=             -4.1521    Z=              2.2455  Tot=              5.0192
 Quadrupole moment (field-independent basis, Debye-Ang):
   XX=           -219.7893   YY=           -233.4529   ZZ=           -255.3019
   XY=             10.2959   XZ=             10.5588   YZ=             27.3197

 ESP charges:
               1
     1  N   -0.268458
     2  C    0.225821
     3  C    0.012076
     4  C   -0.074674
     5  C    0.242147
     6  C   -0.279403
     7  C   -0.085374
     8  C   -0.197626
     9  C   -0.174294
    10  C   -0.125600
    11  C   -0.211313
    12  C   -0.093918
    13  C   -0.290313
    14  H    0.134968
    15  H    0.124335
    16  H    0.143540
    17  H    0.157126
    18  H    0.145723
    19  H    0.147972
    20  H    0.138909
    21  H    0.169551
    22  C   -0.355976
    23  C    0.350120
    24  C   -0.390137
    25  C    0.106645
    26  C    0.396155
    27  C   -0.406032
    28  H    0.178973
    29  H    0.222424
    30  H    0.216264
    31  N   -0.354838
    32  C    0.389881
    33  C   -0.198067
    34  C    0.028227
    35  C    0.288118
    36  C   -0.389571
    37  C   -0.038847
    38  C   -0.258508
    39  C   -0.052798
    40  C   -0.158808
    41  C   -0.217331
    42  C   -0.103615
    43  C   -0.290123
    44  H    0.205571
    45  H    0.130806
    46  H    0.152754
    47  H    0.133257
    48  H    0.154220
    49  H    0.149132
    50  H    0.138771
    51  H    0.160789
    52  S    0.934695
    53  C    0.014152
    54  C   -0.137489
    55  C   -0.189650
    56  C   -0.067051
    57  H    0.140830
    58  C   -0.083092
    59  H    0.166196
    60  C   -0.139141
    61  H    0.121965
    62  H    0.133603
    63  H    0.135480
    64  O   -0.528332
    65  O   -0.530820
 Sum of ESP charges =   0.00000

 Normal termination of Gaussian 16 at Tue Jun 15 15:35:56 2021.
