 Gaussian 16, Revision B.01,
 Gaussian 16:  ES64L-G16RevB.01 20-Dec-2017

 -----------------------------------
 #P wb97xd/6-311g(d,p) nosymm pop=MK
 -----------------------------------

 -------------------
 Title Card Required
 -------------------
 Symbolic Z-matrix:
 Charge =  0 Multiplicity = 1

                          Input orientation:
 ---------------------------------------------------------------------
 Center     Atomic      Atomic             Coordinates (Angstroms)
 Number     Number       Type             X           Y           Z
 ---------------------------------------------------------------------
      1          7           0       -0.032210   -0.038430    0.087210
      2          6           0       -1.442030   -0.134110    0.093010
      3          6           0       -2.204420    0.538120   -0.863830
      4          6           0       -3.586740    0.450870   -0.847540
      5          6           0       -4.255690   -0.323290    0.103480
      6          6           0       -3.482260   -0.999920    1.049430
      7          6           0       -2.100440   -0.901230    1.055500
      8          1           0       -1.706370    1.142610   -1.612760
      9          1           0       -4.158800    1.002450   -1.585800
     10          1           0       -3.969760   -1.622980    1.791500
     11          1           0       -1.520870   -1.433170    1.800820
     12          6           0        0.589980    1.204810   -0.177220
     13          6           0        1.716150    1.271630   -0.998740
     14          6           0        2.318200    2.497260   -1.238400
     15          6           0        1.800420    3.662320   -0.686850
     16          6           0        0.669630    3.612510    0.126760
     17          6           0        0.082510    2.377090    0.383540
     18          1           0        2.115460    0.364300   -1.435960
     19          1           0        3.196270    2.544420   -1.872910
     20          1           0        2.277390    4.615960   -0.887300
     21          1           0       -0.788800    2.318030    1.027410
     22          6           0        0.756480   -1.183070    0.345210
     23          6           0        1.901320   -1.088750    1.139520
     24          6           0        2.677730   -2.212560    1.382120
     25          6           0        2.317300   -3.447770    0.856570
     26          6           0        1.172900   -3.545160    0.073820
     27          6           0        0.401430   -2.422950   -0.190810
     28          1           0        2.179470   -0.129100    1.559100
     29          1           0        3.564780   -2.122500    1.999140
     30          1           0        2.921800   -4.324970    1.054760
     31          1           0        0.882730   -4.500960   -0.348010
     32          1           0       -0.484250   -2.500420   -0.810470
     33          7           0       -9.956570   -0.722070    0.114580
     34          6           0       -8.547200   -0.620200    0.113460
     35          6           0       -7.835740   -0.623430   -1.087640
     36          6           0       -6.453270   -0.538250   -1.084700
     37          6           0       -5.734060   -0.424320    0.107380
     38          6           0       -6.456980   -0.409960    1.302420
     39          6           0       -7.838200   -0.517180    1.311440
     40          1           0       -8.373470   -0.709250   -2.024570
     41          1           0       -5.920770   -0.569110   -2.029160
     42          1           0       -5.929910   -0.305570    2.244650
     43          1           0       -8.378130   -0.506930    2.251000
     44          6           0      -10.599630   -1.614880   -0.775630
     45          6           0      -11.762990   -1.230990   -1.444420
     46          6           0      -12.384490   -2.122040   -2.305460
     47          6           0      -11.850420   -3.385520   -2.526080
     48          6           0      -10.683310   -3.778880   -1.873630
     49          6           0      -10.075770   -2.889380   -0.992080
     50          1           0      -12.174960   -0.242640   -1.279240
     51          1           0      -13.291020   -1.822150   -2.819350
     52          1           0      -12.343040   -4.071120   -3.207510
     53          1           0       -9.175220   -3.184790   -0.463840
     54          6           0      -10.723570    0.058510    1.009500
     55          6           0      -11.831410   -0.492090    1.657610
     56          6           0      -12.587560    0.280560    2.527020
     57          6           0      -12.242580    1.602930    2.780110
     58          6           0      -11.134500    2.149480    2.143500
     59          6           0      -10.384290    1.390570    1.257000
     60          1           0      -12.097280   -1.525810    1.470400
     61          1           0      -13.446050   -0.161110    3.020580
     62          1           0      -12.830970    2.201140    3.465770
     63          1           0      -10.856870    3.181560    2.326320
     64          1           0       -9.527490    1.823440    0.754080
     65          6           0        0.079760    4.869590    0.711530
     66          1           0        0.838770    5.645470    0.831450
     67          1           0       -0.702630    5.268420    0.058130
     68          1           0       -0.371860    4.679830    1.687660
     69          6           0      -10.075920   -5.135520   -2.120150
     70          1           0      -10.827260   -5.850850   -2.460840
     71          1           0       -9.299760   -5.076400   -2.889670
     72          1           0       -9.611660   -5.533050   -1.214910
 ---------------------------------------------------------------------

 SCF Done:  E(RwB97XD) =  -1576.66826366     A.U. after   15 cycles

 Alpha  occ. eigenvalues --  -14.45925 -14.45921 -10.32945 -10.32942 -10.32924
 Alpha  occ. eigenvalues --  -10.32921 -10.32815 -10.32813 -10.29636 -10.29632
 Alpha  occ. eigenvalues --  -10.29441 -10.29411 -10.28776 -10.28774 -10.28771
 Alpha  occ. eigenvalues --  -10.28771 -10.28753 -10.28750 -10.28748 -10.28743
 Alpha  occ. eigenvalues --  -10.28628 -10.28623 -10.28494 -10.28492 -10.28487
 Alpha  occ. eigenvalues --  -10.28486 -10.28382 -10.28379 -10.28369 -10.28363
 Alpha  occ. eigenvalues --  -10.28223 -10.28216 -10.28078 -10.28069 -10.27995
 Alpha  occ. eigenvalues --  -10.27991 -10.27914 -10.27911 -10.27873 -10.27863
 Alpha  occ. eigenvalues --   -1.07346  -1.07340  -0.97524  -0.96441  -0.96429
 Alpha  occ. eigenvalues --   -0.96055  -0.94881  -0.93959  -0.88600  -0.87537
 Alpha  occ. eigenvalues --   -0.87032  -0.86109  -0.86060  -0.85112  -0.85075
 Alpha  occ. eigenvalues --   -0.84803  -0.84486  -0.84001  -0.81751  -0.79917
 Alpha  occ. eigenvalues --   -0.78628  -0.78320  -0.73669  -0.72955  -0.72218
 Alpha  occ. eigenvalues --   -0.71112  -0.70780  -0.69945  -0.69830  -0.69026
 Alpha  occ. eigenvalues --   -0.68991  -0.67898  -0.66269  -0.65808  -0.63288
 Alpha  occ. eigenvalues --   -0.62606  -0.61921  -0.61570  -0.60058  -0.58659
 Alpha  occ. eigenvalues --   -0.57859  -0.57556  -0.56905  -0.56474  -0.56021
 Alpha  occ. eigenvalues --   -0.55026  -0.54392  -0.54272  -0.53490  -0.53159
 Alpha  occ. eigenvalues --   -0.52944  -0.52276  -0.52268  -0.51599  -0.51536
 Alpha  occ. eigenvalues --   -0.51299  -0.51050  -0.50896  -0.50793  -0.50760
 Alpha  occ. eigenvalues --   -0.50482  -0.49590  -0.49580  -0.48766  -0.47783
 Alpha  occ. eigenvalues --   -0.47440  -0.47072  -0.46346  -0.46187  -0.45738
 Alpha  occ. eigenvalues --   -0.45082  -0.45073  -0.44929  -0.44576  -0.44230
 Alpha  occ. eigenvalues --   -0.43596  -0.43446  -0.43250  -0.43076  -0.42594
 Alpha  occ. eigenvalues --   -0.42213  -0.42075  -0.41683  -0.39678  -0.38828
 Alpha  occ. eigenvalues --   -0.35595  -0.34043  -0.34016  -0.33644  -0.33622
 Alpha  occ. eigenvalues --   -0.32856  -0.32736  -0.32532  -0.32034  -0.31437
 Alpha  occ. eigenvalues --   -0.26310  -0.24734
 Alpha virt. eigenvalues --    0.02793   0.04367   0.04477   0.04987   0.05003
 Alpha virt. eigenvalues --    0.06498   0.06807   0.06999   0.07099   0.07143
 Alpha virt. eigenvalues --    0.09260   0.11334   0.11766   0.12044   0.13104

 Mulliken charges:
               1
     1  N   -0.517942
     2  C    0.123797
     3  C   -0.103231
     4  C   -0.086108
     5  C   -0.052340
     6  C   -0.085844
     7  C   -0.103909
     8  H    0.127691
     9  H    0.111734
    10  H    0.111892
    11  H    0.128154
    12  C    0.122490
    13  C   -0.107532
    14  C   -0.099007
    15  C   -0.097902
    16  C   -0.104532
    17  C   -0.092014
    18  H    0.125797
    19  H    0.107470
    20  H    0.097146
    21  H    0.121172
    22  C    0.119903
    23  C   -0.106420
    24  C   -0.104243
    25  C   -0.112267
    26  C   -0.103879
    27  C   -0.108215
    28  H    0.128863
    29  H    0.109558
    30  H    0.106715
    31  H    0.109628
    32  H    0.128718
    33  N   -0.518004
    34  C    0.124040
    35  C   -0.103352
    36  C   -0.085903
    37  C   -0.052234
    38  C   -0.086131
    39  C   -0.104107
    40  H    0.127742
    41  H    0.111743
    42  H    0.111896
    43  H    0.128209
    44  C    0.121860
    45  C   -0.106977
    46  C   -0.098940
    47  C   -0.097350
    48  C   -0.104715
    49  C   -0.092471
    50  H    0.125763
    51  H    0.107475
    52  H    0.097122
    53  H    0.121211
    54  C    0.120976
    55  C   -0.107285
    56  C   -0.104281
    57  C   -0.112300
    58  C   -0.103885
    59  C   -0.108290
    60  H    0.129000
    61  H    0.109523
    62  H    0.106685
    63  H    0.109613
    64  H    0.128774
    65  C   -0.283964
    66  H    0.122586
    67  H    0.139553
    68  H    0.126437
    69  C   -0.283925
    70  H    0.121863
    71  H    0.139550
    72  H    0.127154
 Sum of Mulliken charges =   0.00000

 Dipole moment (field-independent basis, Debye):
    X=              0.0033    Y=              0.0047    Z=             -0.0530  Tot=              0.0533
 Quadrupole moment (field-independent basis, Debye-Ang):
   XX=           -219.0553   YY=           -215.6723   ZZ=           -226.9838
   XY=              3.8217   XZ=              1.2064   YZ=              3.7521

 ESP charges:
               1
     1  N   -0.629283
     2  C    0.464190
     3  C   -0.290784
     4  C   -0.136228
     5  C    0.009850
     6  C   -0.132328
     7  C   -0.306665
     8  H    0.156980
     9  H    0.136741
    10  H    0.137513
    11  H    0.162722
    12  C    0.548509
    13  C   -0.367476
    14  C   -0.060742
    15  C   -0.388147
    16  C    0.390491
    17  C   -0.494153
    18  H    0.166613
    19  H    0.141609
    20  H    0.177774
    21  H    0.187775
    22  C    0.463046
    23  C   -0.258886
    24  C   -0.118780
    25  C   -0.199756
    26  C   -0.097895
    27  C   -0.289502
    28  H    0.141998
    29  H    0.138937
    30  H    0.141514
    31  H    0.134774
    32  H    0.150792
    33  N   -0.619334
    34  C    0.503122
    35  C   -0.354972
    36  C   -0.095960
    37  C    0.004099
    38  C   -0.129857
    39  C   -0.323027
    40  H    0.182502
    41  H    0.128583
    42  H    0.139102
    43  H    0.166315
    44  C    0.441984
    45  C   -0.355561
    46  C   -0.026406
    47  C   -0.389104
    48  C    0.355114
    49  C   -0.426823
    50  H    0.173842
    51  H    0.127763
    52  H    0.177569
    53  H    0.183579
    54  C    0.474974
    55  C   -0.302813
    56  C   -0.087876
    57  C   -0.205368
    58  C   -0.113271
    59  C   -0.274839
    60  H    0.163893
    61  H    0.130345
    62  H    0.142514
    63  H    0.140696
    64  H    0.147023
    65  C   -0.490492
    66  H    0.130138
    67  H    0.140198
    68  H    0.136671
    69  C   -0.472555
    70  H    0.129929
    71  H    0.135516
    72  H    0.131583
 Sum of ESP charges =   0.00000

 1\1\GINC-THINC348\SP\RwB97XD\6-311G(d,p)\C38H32N2\LINK\15-Jun-2021\0\\
 #P wb97xd/6-311g(d,p) nosymm pop=MK\\Title Card Required\\0,1\N,0,-0.0
 3221,-0.03843,0.08721\C,0,-1.44203,-0.13411,0.09301\C,0,-2.20442,0.538
 12,-0.86383\C,0,-3.58674,0.45087,-0.84754\C,0,-4.25569,-0.32329,0.1034
 8\C,0,-3.48226,-0.99992,1.04943\C,0,-2.10044,-0.90123,1.0555\H,0,-1.70
 637,1.14261,-1.61276\H,0,-4.1588,1.00245,-1.5858\H,0,-3.96976,-1.62298
 ,1.7915\H,0,-1.52087,-1.43317,1.80082\C,0,0.58998,1.20481,-0.17722\C,0
 ,1.71615,1.27163,-0.99874\C,0,2.3182,2.49726,-1.2384\C,0,1.80042,3.662

 Normal termination of Gaussian 16 at Tue Jun 15 15:27:27 2021.
